# vtk DataFile Version 4.2
Sample Network
ASCII
DATASET POLYDATA
POINTS 729 float
64.664634 41.463415 14.893293 
25.000000 64.000000 48.000000 
29.066339 158.832924 24.398034 
31.826484 267.100457 20.639269 
20.922693 346.795511 26.533666 
17.575758 393.939394 26.151515 
53.730159 422.199546 16.723356 
49.056604 491.320755 24.339623 
32.822300 92.979094 22.909408 
46.666667 218.333333 5.000000 
79.483955 112.107546 42.827407 
99.040248 359.628483 21.718266 
111.875000 406.250000 38.125000 
64.732143 304.705357 39.875000 
131.757519 487.603383 20.394737 
106.485356 218.702929 27.866109 
146.360947 28.002959 22.781065 
124.352078 171.369193 19.975550 
132.500000 286.428571 35.714286 
131.741344 449.195519 48.080448 
165.000000 230.000000 5.000000 
153.950617 199.938272 24.465021 
164.564103 156.769231 18.666667 
170.250000 429.150000 14.200000 
214.000000 66.000000 29.000000 
174.067797 283.389831 13.728814 
175.000000 117.500000 11.875000 
176.143868 343.443396 30.471698 
251.000000 458.812500 21.000000 
212.500000 190.000000 20.000000 
200.000000 410.000000 5.000000 
202.684426 17.786885 22.110656 
209.080675 148.264540 18.977486 
202.134670 248.653295 34.512894 
224.874759 279.441233 32.495183 
264.668950 320.473744 31.934932 
253.085106 416.501877 21.063830 
267.500000 126.966667 21.166667 
243.333333 101.666667 65.000000 
252.100000 186.900000 46.160000 
270.384615 495.961538 8.076923 
283.554913 19.421965 28.656069 
296.694915 199.491525 19.067797 
298.035714 64.172078 26.477273 
321.250000 188.750000 5.000000 
325.416667 427.727273 18.333333 
317.761194 482.591588 39.857531 
317.680556 267.263889 32.652778 
354.962562 156.277038 29.222130 
340.795455 89.022727 14.045455 
335.625000 221.250000 5.000000 
362.176871 27.585034 31.965986 
370.000000 247.500000 80.000000 
346.666667 343.095238 10.000000 
384.180328 393.907104 20.783242 
355.000000 470.000000 10.000000 
396.092437 300.126050 13.445378 
388.237598 261.592689 42.271540 
408.888889 167.222222 26.666667 
394.348199 478.096055 40.771870 
408.333333 352.083333 17.083333 
420.810811 447.297297 26.891892 
421.582278 23.860759 20.443038 
423.792373 100.741525 27.612994 
463.338509 300.201863 27.290373 
442.360272 401.344411 53.817976 
437.952381 169.952381 27.000000 
451.431925 427.981221 18.779343 
487.500000 246.250000 17.500000 
470.000000 380.000000 15.000000 
492.142857 452.857143 6.428571 
461.235441 203.523295 44.633943 
471.875000 17.708333 13.854167 
458.529412 134.607843 45.588235 
475.906040 482.718121 19.463087 
476.207547 155.886792 22.867925 
490.000000 67.916667 14.166667 
491.023102 364.339934 38.316832 
87.000000 500.000000 79.000000 
260.322581 24.677419 61.129032 
385.000000 401.666667 76.666667 
447.857143 260.000000 56.428571 
127.619048 359.285714 60.000000 
155.000000 95.000000 55.000000 
186.962751 465.472779 45.214900 
235.147300 451.546645 65.008183 
228.287462 488.409786 53.593272 
7.692308 320.769231 62.692308 
155.000000 497.500000 50.000000 
172.291196 165.112867 50.902935 
193.465347 490.049505 45.297030 
268.858025 286.820988 59.413580 
409.090909 19.545455 48.181818 
493.161765 230.147059 59.558824 
27.222222 463.126984 58.507937 
69.547383 153.217822 68.295615 
121.716698 174.446529 63.020638 
106.384615 318.487179 76.538462 
134.212329 226.769406 78.202055 
281.205882 484.029412 53.205882 
284.583333 378.472222 61.250000 
352.524570 199.269042 66.664619 
29.201183 41.479290 73.239645 
20.774793 363.481405 62.913223 
49.657143 229.500000 68.714286 
165.305499 49.638493 82.092668 
287.795455 455.568182 63.215909 
331.314961 370.763780 80.094488 
401.875000 138.750000 80.625000 
475.030675 53.036810 63.895706 
489.163636 163.872727 76.181818 
68.584906 455.660377 60.911950 
83.897516 373.757764 74.720497 
101.990741 14.429012 83.657407 
220.000000 85.000000 55.000000 
246.825397 169.523810 66.626984 
299.293478 90.496894 78.711180 
344.693878 156.870748 69.591837 
394.644970 325.670611 65.384615 
500.000000 390.000000 47.500000 
480.463576 482.086093 74.757174 
186.540323 100.112903 88.766129 
305.000000 335.000000 75.000000 
343.237705 443.284543 93.776347 
425.117302 95.425220 93.284457 
424.686411 191.062718 93.728223 
467.916667 355.000000 60.833333 
38.022222 302.188889 102.322222 
100.731707 199.512195 119.634146 
182.699203 404.890438 98.705179 
207.794118 317.990196 84.460784 
215.660377 368.787062 91.266846 
232.307692 493.461538 90.000000 
327.291667 42.708333 75.416667 
458.818182 443.636364 95.636364 
16.449814 156.691450 77.416357 
17.484848 487.575758 96.272727 
157.558714 473.609394 105.889988 
165.373832 367.383178 73.551402 
215.016863 221.618887 100.649241 
443.399758 305.567633 91.135266 
489.459459 340.157658 85.788288 
230.087379 68.349515 92.864078 
256.796267 249.548989 90.567652 
275.134228 200.995526 80.816555 
420.232240 12.322404 114.713115 
493.947368 12.631579 76.973684 
117.617647 153.735294 106.617647 
175.333333 290.333333 102.333333 
200.454545 498.636364 119.090909 
288.846154 85.000000 124.230769 
244.314790 139.430122 113.995929 
295.473684 161.565789 108.078947 
300.706595 311.049798 115.948856 
442.631579 221.842105 117.631579 
482.500000 80.000000 105.000000 
28.275862 34.310345 160.646552 
88.893654 426.869640 99.228130 
122.500000 382.500000 107.500000 
149.405520 330.403397 113.598726 
256.439791 17.827225 109.607330 
289.000000 412.800000 103.200000 
290.882353 492.420814 104.524887 
332.819905 256.492891 105.687204 
388.822630 354.541284 104.220183 
375.153235 58.274688 115.164586 
397.285714 302.476190 108.619048 
20.822222 379.644444 112.644444 
85.000000 349.000000 112.000000 
115.233415 257.567568 119.176904 
290.000000 262.500000 112.500000 
400.989399 251.554770 93.409894 
23.321637 207.152047 111.549708 
71.025157 172.616352 115.132075 
113.733333 101.933333 115.200000 
70.156483 471.512668 116.095380 
95.000000 207.500000 155.000000 
315.628931 35.534591 100.880503 
332.500000 357.500000 137.500000 
489.114286 122.114286 104.685714 
67.958167 62.460159 135.796813 
193.931159 155.688406 121.086957 
437.892157 334.950980 124.117647 
488.820755 230.235849 98.537736 
304.666667 383.000000 139.000000 
352.906977 485.581395 117.093023 
376.953642 141.125828 117.185430 
450.140351 261.017544 135.719298 
476.032680 198.496732 131.836601 
424.357250 476.337818 145.500747 
480.419255 23.035714 134.844720 
482.408313 314.022005 128.129584 
483.333333 386.000000 124.500000 
154.565217 44.565217 178.913043 
267.265823 202.158228 137.658228 
287.500000 75.000000 130.000000 
373.750000 16.801471 124.852941 
21.788703 123.347280 146.799163 
61.250000 240.704787 134.946809 
25.000000 490.000000 140.000000 
56.666667 322.500000 169.166667 
187.741935 79.677419 166.612903 
173.892365 53.241552 135.125156 
189.428008 197.652860 140.473373 
230.986395 50.272109 140.986395 
206.342711 489.539642 157.033248 
263.737624 350.358911 140.915842 
298.369565 240.978261 159.202899 
333.352345 120.849176 141.077313 
341.784274 171.844758 144.828629 
355.897436 234.743590 145.769231 
27.836735 425.867347 152.244898 
118.078231 379.897959 144.404762 
114.218182 340.787879 155.121212 
226.434295 251.714744 148.277244 
446.355476 152.028725 147.190305 
399.876238 415.495050 133.910891 
478.750000 155.625000 187.500000 
65.588235 18.393665 163.687783 
112.821782 471.237624 163.465347 
274.424460 94.460432 192.266187 
496.406250 129.843750 159.531250 
57.743814 295.458515 157.860262 
138.665541 192.440878 152.221284 
298.141026 31.115385 147.089744 
331.956522 69.130435 145.869565 
365.568384 275.497336 148.037300 
373.333333 394.444444 157.777778 
404.452941 220.017647 153.200000 
387.083333 350.808824 152.107843 
492.538462 495.846154 148.923077 
153.160377 271.179245 164.292453 
199.369369 372.560060 170.015015 
465.000000 225.000000 172.500000 
32.361111 51.666667 166.666667 
23.570020 334.230769 176.400394 
106.801242 128.369565 162.717391 
233.913043 434.782609 158.478261 
288.635468 442.714286 174.630542 
316.666667 438.333333 130.000000 
498.928571 355.357143 181.785714 
18.179487 241.358974 171.410256 
99.553903 415.910781 184.014870 
153.180473 156.923077 158.491124 
334.638109 484.519941 180.487445 
456.297710 93.816794 165.381679 
496.000000 414.000000 163.500000 
63.787879 373.080808 191.464646 
191.611111 281.175926 172.648148 
271.666667 271.666667 178.333333 
344.342857 299.876190 176.523810 
381.157025 45.950413 177.066116 
419.243952 115.756048 183.417339 
82.500000 295.000000 197.500000 
202.500000 137.500000 166.250000 
247.794562 12.960725 167.386707 
235.563584 313.063584 187.861272 
247.208955 169.925373 177.910448 
328.040541 350.270270 195.810811 
485.871711 273.026316 179.292763 
21.428571 319.285714 212.142857 
116.394737 29.868421 178.315789 
290.878788 308.015152 185.893939 
311.917098 186.442142 178.540587 
435.350765 248.890306 193.335459 
435.566038 393.288410 179.973046 
452.414384 19.648973 175.154110 
498.055556 423.611111 174.166667 
16.467577 168.788396 189.965870 
59.637681 210.101449 186.826087 
245.538793 124.612069 197.683190 
255.104167 478.065476 197.529762 
363.838665 399.993046 198.748261 
133.695652 230.434783 202.391304 
151.484561 336.092637 202.945368 
206.874016 28.866142 200.897638 
332.941748 71.009709 203.902913 
399.351852 292.027778 202.611111 
425.859873 10.573248 216.974522 
456.717391 457.978261 190.086957 
457.297297 359.324324 187.432432 
41.800554 486.772853 191.149584 
95.000000 145.000000 210.000000 
107.776680 271.452569 204.130435 
154.425754 111.954756 196.832947 
475.000000 305.000000 192.500000 
475.274889 206.500743 207.756315 
485.294118 141.176471 185.882353 
485.406977 51.700581 188.750000 
16.585052 282.100515 203.041237 
[...]
POINT_DATA 729 
SCALARS Pore_Radius_micron float
LOOKUP_TABLE default
2.13910e+01 
5.30392e+00 
2.29865e+01 
1.86963e+01 
2.28729e+01 
1.70125e+01 
2.36095e+01 
1.16511e+01 
2.04598e+01 
4.47350e+00 
3.25250e+01 
2.12818e+01 
6.20350e+00 
2.55664e+01 
2.51330e+01 
1.92489e+01 
2.16062e+01 
2.30240e+01 
7.47566e+00 
3.08303e+01 
3.10175e+00 
1.93557e+01 
1.79867e+01 
1.43971e+01 
5.30392e+00 
1.20751e+01 
6.20350e+00 
2.33021e+01 
1.33650e+01 
3.90796e+00 
3.10175e+00 
1.93822e+01 
2.51487e+01 
2.18381e+01 
2.49266e+01 
2.96785e+01 
2.87821e+01 
1.64805e+01 
4.47350e+00 
1.95398e+01 
9.18893e+00 
2.17754e+01 
1.52137e+01 
2.09471e+01 
6.20350e+00 
1.57930e+01 
2.80175e+01 
2.20652e+01 
3.29793e+01 
1.87247e+01 
6.20350e+00 
2.79921e+01 
3.90796e+00 
8.55750e+00 
2.53979e+01 
3.10175e+00 
1.52565e+01 
2.25254e+01 
6.45191e+00 
2.59117e+01 
7.10124e+00 
1.03357e+01 
1.33091e+01 
2.76451e+01 
2.67857e+01 
3.40594e+01 
1.46331e+01 
1.85240e+01 
6.20350e+00 
3.10175e+00 
5.93344e+00 
3.29793e+01 
1.62578e+01 
1.15026e+01 
1.64438e+01 
1.99230e+01 
8.94700e+00 
2.08331e+01 
5.30392e+00 
9.74379e+00 
4.47350e+00 
5.93344e+00 
8.55750e+00 
3.10175e+00 
2.18381e+01 
2.63201e+01 
2.13693e+01 
7.29326e+00 
3.90796e+00 
2.36451e+01 
1.44449e+01 
1.69088e+01 
6.89824e+00 
1.26603e+01 
2.11046e+01 
2.76321e+01 
2.51487e+01 
1.79867e+01 
2.96785e+01 
1.71826e+01 
1.02418e+01 
2.89611e+01 
2.16062e+01 
2.43532e+01 
2.18590e+01 
3.08303e+01 
2.35916e+01 
2.66603e+01 
6.20350e+00 
1.69435e+01 
2.01706e+01 
1.68037e+01 
2.12598e+01 
2.13037e+01 
3.10175e+00 
1.55500e+01 
2.67857e+01 
2.06248e+01 
2.47330e+01 
3.90796e+00 
2.38217e+01 
2.64487e+01 
3.10175e+00 
2.94279e+01 
2.16700e+01 
2.95081e+01 
7.10124e+00 
2.37690e+01 
1.06955e+01 
2.46514e+01 
1.44924e+01 
2.22877e+01 
7.29326e+00 
8.94700e+00 
1.48618e+01 
2.00228e+01 
1.70125e+01 
2.89017e+01 
1.47254e+01 
2.60591e+01 
2.91262e+01 
1.87813e+01 
2.48624e+01 
2.67718e+01 
2.37161e+01 
2.21871e+01 
1.04280e+01 
1.71826e+01 
7.64958e+00 
6.89824e+00 
7.29326e+00 
2.80175e+01 
2.24665e+01 
2.80933e+01 
8.27672e+00 
3.90796e+00 
1.51272e+01 
2.59117e+01 
3.90796e+00 
2.41332e+01 
1.78629e+01 
9.06958e+00 
1.87530e+01 
2.32654e+01 
2.69236e+01 
2.97349e+01 
1.46331e+01 
1.88655e+01 
5.30392e+00 
2.29865e+01 
3.90796e+00 
2.03643e+01 
2.94394e+01 
2.87340e+01 
1.30806e+01 
2.71549e+01 
3.90796e+00 
1.68037e+01 
3.90796e+00 
1.73495e+01 
2.46514e+01 
2.01950e+01 
1.44924e+01 
1.46794e+01 
7.64958e+00 
1.08667e+01 
1.65171e+01 
2.04122e+01 
2.83679e+01 
2.71279e+01 
2.67857e+01 
2.30240e+01 
1.21430e+01 
1.11137e+01 
2.86736e+01 
3.90796e+00 
1.59510e+01 
2.42521e+01 
2.23874e+01 
4.92373e+00 
5.63626e+00 
9.74379e+00 
2.87821e+01 
2.47330e+01 
2.06248e+01 
2.26812e+01 
2.29298e+01 
1.60288e+01 
2.86615e+01 
2.45528e+01 
1.05187e+01 
2.44534e+01 
2.59856e+01 
2.90910e+01 
2.65055e+01 
2.55207e+01 
1.81994e+01 
6.20350e+00 
1.87530e+01 
1.44449e+01 
1.60674e+01 
1.24070e+01 
2.73690e+01 
2.60444e+01 
2.26618e+01 
8.82097e+00 
2.56120e+01 
9.30526e+00 
2.93819e+01 
1.82593e+01 
1.24713e+01 
1.46794e+01 
2.70873e+01 
3.90796e+00 
1.02418e+01 
2.47330e+01 
2.12598e+01 
8.82097e+00 
3.11718e+01 
4.47350e+00 
9.41875e+00 
1.79867e+01 
2.00228e+01 
2.16062e+01 
2.72356e+01 
1.98476e+01 
1.06078e+01 
1.43489e+01 
2.52584e+01 
4.47350e+00 
2.50223e+01 
2.21263e+01 
2.45528e+01 
4.92373e+00 
6.20350e+00 
2.14561e+01 
2.74353e+01 
2.15421e+01 
1.30222e+01 
2.08560e+01 
5.93344e+00 
1.78317e+01 
2.14344e+01 
2.58523e+01 
2.86009e+01 
2.22877e+01 
2.59266e+01 
8.12889e+00 
2.06014e+01 
2.74088e+01 
2.40130e+01 
2.15635e+01 
2.77875e+01 
8.82097e+00 
2.32470e+01 
2.66603e+01 
2.48624e+01 
2.52584e+01 
1.67330e+01 
1.90042e+01 
1.03357e+01 
2.20856e+01 
3.10175e+00 
2.47167e+01 
2.95195e+01 
3.90796e+00 
2.71818e+01 
7.97548e+00 
2.17333e+01 
2.26230e+01 
2.79540e+01 
2.94394e+01 
1.31959e+01 
1.88934e+01 
2.34297e+01 
1.29633e+01 
3.10175e+00 
3.90796e+00 
2.37514e+01 
2.29865e+01 
1.37440e+01 
2.07179e+01 
1.81392e+01 
1.87813e+01 
5.30392e+00 
2.22476e+01 
7.64958e+00 
5.63626e+00 
2.05072e+01 
1.01460e+01 
2.30615e+01 
2.46186e+01 
1.74153e+01 
1.82891e+01 
7.64958e+00 
1.51706e+01 
2.01215e+01 
2.19832e+01 
1.76738e+01 
2.94279e+01 
2.38217e+01 
2.55207e+01 
1.91680e+01 
2.84910e+01 
1.99230e+01 
2.00969e+01 
8.55750e+00 
1.47712e+01 
1.14270e+01 
2.06947e+01 
8.82097e+00 
2.74749e+01 
3.01673e+01 
4.47350e+00 
3.10175e+00 
4.47350e+00 
1.80174e+01 
2.41332e+01 
1.26603e+01 
2.23077e+01 
2.11492e+01 
2.88779e+01 
4.92373e+00 
2.50540e+01 
7.64958e+00 
2.69373e+01 
2.21871e+01 
2.71818e+01 
1.03357e+01 
2.36273e+01 
8.12889e+00 
2.56876e+01 
9.41875e+00 
6.89824e+00 
2.66603e+01 
6.68252e+00 
2.11269e+01 
2.15207e+01 
2.71008e+01 
6.20350e+00 
2.25254e+01 
5.63626e+00 
2.22476e+01 
2.61029e+01 
2.16911e+01 
2.56120e+01 
2.36273e+01 
2.78261e+01 
2.45528e+01 
7.97548e+00 
2.01706e+01 
7.10124e+00 
2.15635e+01 
2.22676e+01 
9.94898e+00 
2.30053e+01 
2.27198e+01 
2.36273e+01 
2.47004e+01 
1.00485e+01 
2.50064e+01 
1.81089e+01 
2.96672e+01 
2.64771e+01 
2.07642e+01 
1.90317e+01 
7.81593e+00 
1.23421e+01 
3.10175e+00 
7.29326e+00 
2.26230e+01 
2.53670e+01 
4.92373e+00 
2.24665e+01 
2.57477e+01 
3.33322e+01 
1.51706e+01 
8.94700e+00 
1.91680e+01 
2.82936e+01 
2.27198e+01 
1.53415e+01 
4.92373e+00 
2.64202e+01 
2.74088e+01 
2.17963e+01 
2.55816e+01 
1.53837e+01 
2.38916e+01 
6.89824e+00 
2.15207e+01 
4.92373e+00 
2.51802e+01 
2.32654e+01 
1.72163e+01 
2.75143e+01 
4.92373e+00 
4.92373e+00 
2.66883e+01 
2.65337e+01 
3.10175e+00 
2.20652e+01 
2.27583e+01 
1.24713e+01 
4.47350e+00 
2.62192e+01 
1.73495e+01 
3.10175e+00 
3.10175e+00 
2.16275e+01 
2.31175e+01 
2.60737e+01 
1.06078e+01 
7.47566e+00 
1.16511e+01 
2.97011e+01 
5.30392e+00 
1.87247e+01 
7.81593e+00 
7.10124e+00 
2.61321e+01 
1.06955e+01 
4.47350e+00 
1.39515e+01 
1.40024e+01 
5.93344e+00 
3.90796e+00 
2.86130e+01 
1.09503e+01 
2.54287e+01 
2.34659e+01 
6.20350e+00 
3.10175e+00 
2.42690e+01 
2.60444e+01 
2.45528e+01 
5.63626e+00 
2.33570e+01 
2.31361e+01 
2.42013e+01 
7.64958e+00 
2.63488e+01 
2.22073e+01 
2.10598e+01 
2.63345e+01 
5.93344e+00 
2.51015e+01 
3.01782e+01 
2.34478e+01 
2.70329e+01 
1.53415e+01 
5.63626e+00 
3.10175e+00 
2.90675e+01 
9.74379e+00 
3.06936e+01 
2.94624e+01 
3.90796e+00 
2.17333e+01 
3.10175e+00 
3.10175e+00 
2.04598e+01 
2.42859e+01 
2.99027e+01 
3.10175e+00 
1.44924e+01 
3.90796e+00 
4.92373e+00 
1.38485e+01 
3.90796e+00 
2.31361e+01 
1.29633e+01 
4.47350e+00 
2.39264e+01 
5.30392e+00 
1.85240e+01 
2.09698e+01 
2.05072e+01 
2.61757e+01 
2.55207e+01 
2.18173e+01 
1.37440e+01 
2.10598e+01 
5.93344e+00 
1.78003e+01 
3.10175e+00 
2.26812e+01 
5.93344e+00 
4.47350e+00 
1.06078e+01 
3.03843e+01 
3.10175e+00 
2.66883e+01 
2.11046e+01 
2.66743e+01 
4.92373e+00 
7.81593e+00 
2.30428e+01 
1.02418e+01 
2.08789e+01 
2.58672e+01 
2.44034e+01 
1.71489e+01 
2.41332e+01 
2.80428e+01 
2.45363e+01 
2.23277e+01 
2.79794e+01 
1.49513e+01 
6.45191e+00 
1.90317e+01 
3.10175e+00 
2.42859e+01 
1.96692e+01 
2.51645e+01 
7.81593e+00 
1.13503e+01 
2.22676e+01 
9.30526e+00 
2.35199e+01 
2.94738e+01 
7.64958e+00 
5.63626e+00 
2.19213e+01 
2.13693e+01 
8.27672e+00 
2.56876e+01 
2.74880e+01 
2.20037e+01 
2.67440e+01 
2.47330e+01 
2.19832e+01 
1.90317e+01 
2.19213e+01 
1.73825e+01 
2.29865e+01 
1.96177e+01 
1.81089e+01 
2.09471e+01 
2.16488e+01 
1.86392e+01 
2.83803e+01 
8.94700e+00 
3.36603e+01 
2.63201e+01 
7.29326e+00 
1.63699e+01 
2.74617e+01 
2.56725e+01 
4.47350e+00 
1.94350e+01 
2.23476e+01 
2.73823e+01 
2.08331e+01 
3.90796e+00 
3.72784e+01 
3.10175e+00 
1.37965e+01 
8.41945e+00 
3.12331e+01 
5.30392e+00 
1.04280e+01 
1.51706e+01 
1.84949e+01 
1.81994e+01 
1.17239e+01 
2.52895e+01 
3.10175e+00 
2.19626e+01 
2.67301e+01 
5.63626e+00 
6.68252e+00 
1.64069e+01 
4.47350e+00 
2.68961e+01 
3.90796e+00 
2.21466e+01 
5.63626e+00 
2.88779e+01 
7.97548e+00 
1.86105e+01 
7.10124e+00 
2.81813e+01 
2.80302e+01 
2.85032e+01 
3.10175e+00 
4.47350e+00 
1.93291e+01 
1.09503e+01 
2.47492e+01 
2.55359e+01 
2.49266e+01 
2.23675e+01 
7.29326e+00 
9.52957e+00 
2.81185e+01 
2.59561e+01 
3.07779e+01 
5.30392e+00 
2.07179e+01 
2.09244e+01 
7.47566e+00 
1.85529e+01 
1.37440e+01 
2.45858e+01 
1.68389e+01 
2.53206e+01 
7.10124e+00 
1.43004e+01 
2.93819e+01 
2.58375e+01 
3.90796e+00 
2.57327e+01 
1.53415e+01 
2.72356e+01 
1.57128e+01 
2.17754e+01 
2.69647e+01 
2.63774e+01 
5.93344e+00 
2.10149e+01 
2.47330e+01 
2.20856e+01 
1.58328e+01 
2.77747e+01 
2.85399e+01 
2.28729e+01 
2.26230e+01 
2.39090e+01 
6.89824e+00 
4.47350e+00 
7.64958e+00 
2.02436e+01 
3.90796e+00 
3.24117e+01 
2.47492e+01 
2.74220e+01 
7.47566e+00 
2.67022e+01 
6.68252e+00 
2.32102e+01 
1.50398e+01 
2.29298e+01 
3.90796e+00 
1.56725e+01 
1.71826e+01 
2.37161e+01 
4.47350e+00 
2.29865e+01 
9.18893e+00 
8.82097e+00 
1.48166e+01 
2.48463e+01 
9.94898e+00 
3.90796e+00 
2.14561e+01 
5.63626e+00 
3.10175e+00 
2.78518e+01 
7.29326e+00 
2.26230e+01 
3.10175e+00 
2.69373e+01 
4.92373e+00 
8.55750e+00 
1.97715e+01 
2.34839e+01 
1.90591e+01 
1.64805e+01 
7.47566e+00 
1.60674e+01 
2.19626e+01 
5.93344e+00 
1.73164e+01 
5.63626e+00 
2.17544e+01 
2.33570e+01 
1.82891e+01 
4.92373e+00 
2.64771e+01 
1.32527e+01 
2.51172e+01 
5.93344e+00 
1.29038e+01 
7.64958e+00 
2.31547e+01 
1.73495e+01 
2.34115e+01 
2.83556e+01 
2.57477e+01 
3.90796e+00 
6.45191e+00 
5.93344e+00 
2.05308e+01 
1.08667e+01 
8.82097e+00 
9.84745e+00 
2.03403e+01 
2.36629e+01 
2.17754e+01 
1.22764e+01 
2.43867e+01 
2.26230e+01 
2.17544e+01 
3.90796e+00 
1.29633e+01 
4.92373e+00 
1.52137e+01 
1.66974e+01 
SCALARS Pore_Pressure_Pa_X float
LOOKUP_TABLE default
2.00000e+00 
2.00000e+00 
1.71061e+00 
1.59289e+00 
1.28083e+00 
1.27198e+00 
1.25350e+00 
1.00000e+00 
1.71739e+00 
1.50000e+00 
1.71448e+00 
1.39880e+00 
1.08014e+00 
1.42876e+00 
1.00000e+00 
1.69675e+00 
2.00000e+00 
1.70067e+00 
1.50000e+00 
1.00627e+00 
1.50000e+00 
1.70084e+00 
1.70208e+00 
1.00454e+00 
1.50000e+00 
1.50000e+00 
1.70482e+00 
1.18724e+00 
1.06134e+00 
1.70742e+00 
1.50000e+00 
2.00000e+00 
1.70764e+00 
1.54476e+00 
1.54423e+00 
1.53542e+00 
1.06201e+00 
1.72171e+00 
1.50000e+00 
1.69011e+00 
1.00000e+00 
2.00000e+00 
1.67556e+00 
1.97616e+00 
1.70564e+00 
1.18812e+00 
1.00000e+00 
1.56875e+00 
1.67851e+00 
1.96931e+00 
1.63403e+00 
2.00000e+00 
1.37655e+00 
1.23998e+00 
1.23973e+00 
1.00000e+00 
1.37599e+00 
1.37655e+00 
1.70273e+00 
1.00000e+00 
1.50000e+00 
1.21072e+00 
2.00000e+00 
1.86938e+00 
1.37452e+00 
1.24415e+00 
1.74726e+00 
1.23892e+00 
1.50000e+00 
1.24415e+00 
1.00000e+00 
1.74968e+00 
2.00000e+00 
1.76216e+00 
1.00000e+00 
1.75605e+00 
2.00000e+00 
1.35282e+00 
1.00000e+00 
2.00000e+00 
1.27570e+00 
1.74968e+00 
1.15154e+00 
1.99242e+00 
1.00333e+00 
1.00911e+00 
1.00000e+00 
1.28086e+00 
1.00000e+00 
1.70159e+00 
1.00000e+00 
1.55651e+00 
2.00000e+00 
1.73904e+00 
1.00000e+00 
1.70182e+00 
1.69877e+00 
1.22915e+00 
1.69527e+00 
1.00000e+00 
1.50000e+00 
1.67479e+00 
2.00000e+00 
1.28086e+00 
1.65016e+00 
2.00000e+00 
1.00238e+00 
1.33240e+00 
1.89956e+00 
2.00000e+00 
1.73904e+00 
1.00824e+00 
1.06455e+00 
2.00000e+00 
1.50000e+00 
1.69005e+00 
1.83091e+00 
1.67636e+00 
1.35156e+00 
1.35282e+00 
1.00000e+00 
1.99242e+00 
1.50855e+00 
1.00963e+00 
1.89956e+00 
1.73923e+00 
1.36149e+00 
1.37410e+00 
1.68315e+00 
1.08783e+00 
1.10520e+00 
1.10520e+00 
1.00000e+00 
2.00000e+00 
1.19090e+00 
1.69478e+00 
1.00000e+00 
1.00000e+00 
1.18641e+00 
1.69146e+00 
1.36329e+00 
1.36726e+00 
1.98342e+00 
1.67833e+00 
1.68582e+00 
2.00000e+00 
2.00000e+00 
1.69280e+00 
1.50000e+00 
1.00000e+00 
1.82956e+00 
1.79720e+00 
1.72006e+00 
1.50855e+00 
1.71664e+00 
2.00000e+00 
2.00000e+00 
1.03959e+00 
1.12922e+00 
1.18612e+00 
2.00000e+00 
1.00963e+00 
1.00000e+00 
1.60344e+00 
1.32326e+00 
1.97532e+00 
1.33810e+00 
1.27266e+00 
1.06455e+00 
1.69382e+00 
1.52990e+00 
1.38080e+00 
1.65712e+00 
1.67694e+00 
1.76557e+00 
1.00000e+00 
1.69845e+00 
1.99895e+00 
1.50000e+00 
1.73904e+00 
1.99838e+00 
1.75255e+00 
1.34833e+00 
1.73299e+00 
1.50000e+00 
1.00000e+00 
1.72300e+00 
1.67605e+00 
1.73074e+00 
1.00000e+00 
2.00000e+00 
1.38195e+00 
1.36726e+00 
2.00000e+00 
1.72618e+00 
1.82956e+00 
2.00000e+00 
1.69122e+00 
1.62336e+00 
1.00000e+00 
1.50000e+00 
2.00000e+00 
2.00000e+00 
1.69783e+00 
2.00000e+00 
1.00000e+00 
1.49626e+00 
1.72254e+00 
1.72220e+00 
1.72300e+00 
1.70689e+00 
1.26201e+00 
1.19737e+00 
1.20721e+00 
1.67442e+00 
1.75987e+00 
1.00000e+00 
1.75987e+00 
2.00000e+00 
1.00000e+00 
1.96528e+00 
1.75987e+00 
1.39004e+00 
1.69845e+00 
2.00000e+00 
1.98025e+00 
1.58064e+00 
1.00000e+00 
1.72029e+00 
1.32260e+00 
1.00000e+00 
1.52076e+00 
1.18154e+00 
1.72597e+00 
1.99898e+00 
1.36755e+00 
1.70144e+00 
1.04982e+00 
1.02267e+00 
1.00963e+00 
1.50000e+00 
1.52026e+00 
1.00302e+00 
1.69920e+00 
1.00000e+00 
1.81995e+00 
1.36726e+00 
1.26285e+00 
1.54586e+00 
1.67442e+00 
1.57000e+00 
2.00000e+00 
1.77812e+00 
1.21595e+00 
1.75755e+00 
2.00000e+00 
1.48725e+00 
1.77629e+00 
1.41124e+00 
1.59482e+00 
1.37071e+00 
2.00000e+00 
1.48274e+00 
1.72632e+00 
1.64621e+00 
1.01625e+00 
2.00000e+00 
1.36726e+00 
1.66536e+00 
1.60751e+00 
1.87123e+00 
1.00000e+00 
1.01753e+00 
1.50000e+00 
1.22452e+00 
2.00000e+00 
1.99841e+00 
1.59263e+00 
2.00000e+00 
1.00000e+00 
1.01625e+00 
1.00000e+00 
1.50000e+00 
1.46799e+00 
1.70330e+00 
1.02302e+00 
1.72597e+00 
1.75987e+00 
1.98910e+00 
1.46104e+00 
1.21595e+00 
1.00311e+00 
1.00000e+00 
1.73068e+00 
1.42822e+00 
1.40101e+00 
1.75987e+00 
1.00101e+00 
1.97272e+00 
1.00000e+00 
1.12297e+00 
1.04611e+00 
1.68044e+00 
1.00000e+00 
1.54272e+00 
1.01625e+00 
1.99995e+00 
1.00000e+00 
1.61351e+00 
1.96372e+00 
2.00000e+00 
1.53855e+00 
1.58415e+00 
1.98725e+00 
2.00000e+00 
1.50000e+00 
1.14525e+00 
1.86469e+00 
1.02302e+00 
1.96675e+00 
1.96709e+00 
1.35142e+00 
1.61351e+00 
1.68920e+00 
1.00101e+00 
1.74442e+00 
1.00000e+00 
1.47001e+00 
1.47956e+00 
1.84069e+00 
1.97244e+00 
1.84664e+00 
1.12109e+00 
2.00000e+00 
1.42822e+00 
1.02378e+00 
1.79873e+00 
1.00628e+00 
1.99827e+00 
1.26285e+00 
1.00000e+00 
2.00000e+00 
1.61717e+00 
1.01948e+00 
1.15197e+00 
1.40101e+00 
1.00000e+00 
1.08967e+00 
1.00000e+00 
1.32288e+00 
1.00000e+00 
1.76550e+00 
1.93356e+00 
1.54272e+00 
1.34341e+00 
1.23035e+00 
2.00000e+00 
1.61492e+00 
1.61717e+00 
1.00000e+00 
1.72968e+00 
1.34327e+00 
1.96723e+00 
1.94403e+00 
1.40155e+00 
1.39896e+00 
1.00000e+00 
1.69240e+00 
1.76227e+00 
1.96936e+00 
1.34908e+00 
1.61351e+00 
1.05988e+00 
2.00000e+00 
1.50000e+00 
1.47275e+00 
1.89317e+00 
1.75508e+00 
2.00000e+00 
1.00000e+00 
1.44327e+00 
2.00000e+00 
1.00000e+00 
2.00000e+00 
2.00000e+00 
1.37886e+00 
2.00000e+00 
1.73473e+00 
1.09871e+00 
1.50000e+00 
1.33579e+00 
1.79917e+00 
1.52775e+00 
1.54272e+00 
1.00000e+00 
1.90241e+00 
1.95370e+00 
1.73219e+00 
1.49456e+00 
1.74800e+00 
1.49535e+00 
2.00000e+00 
1.97530e+00 
1.00000e+00 
1.47339e+00 
1.34844e+00 
1.96936e+00 
1.76004e+00 
1.00000e+00 
1.89622e+00 
1.35188e+00 
1.38181e+00 
1.73473e+00 
1.76191e+00 
1.35385e+00 
1.07971e+00 
1.33433e+00 
1.00000e+00 
1.93239e+00 
1.73573e+00 
1.24648e+00 
1.09075e+00 
1.97220e+00 
2.00000e+00 
1.00036e+00 
1.33433e+00 
1.00000e+00 
1.25144e+00 
1.50000e+00 
1.54272e+00 
1.19742e+00 
1.33618e+00 
1.00000e+00 
1.50000e+00 
1.90241e+00 
1.66411e+00 
1.89358e+00 
1.00000e+00 
1.49905e+00 
2.00000e+00 
1.97657e+00 
1.34947e+00 
1.08612e+00 
1.97657e+00 
1.00000e+00 
1.35149e+00 
2.00000e+00 
1.00000e+00 
1.05113e+00 
1.05113e+00 
1.49905e+00 
1.50000e+00 
1.34087e+00 
1.30967e+00 
1.76481e+00 
2.00000e+00 
1.50000e+00 
1.24648e+00 
1.05801e+00 
1.25144e+00 
2.00000e+00 
1.34985e+00 
1.66675e+00 
2.00000e+00 
1.12963e+00 
1.79917e+00 
2.00000e+00 
1.05298e+00 
1.09871e+00 
1.00000e+00 
1.19742e+00 
1.47339e+00 
1.50000e+00 
2.00000e+00 
1.00000e+00 
2.00000e+00 
1.34353e+00 
1.96936e+00 
1.28740e+00 
1.05076e+00 
1.50000e+00 
2.00000e+00 
1.34200e+00 
1.14733e+00 
1.11966e+00 
1.28927e+00 
1.50000e+00 
1.50000e+00 
2.00000e+00 
1.50000e+00 
1.65994e+00 
1.23494e+00 
1.34947e+00 
2.00000e+00 
1.50000e+00 
1.00000e+00 
1.35855e+00 
1.89358e+00 
1.77440e+00 
1.32015e+00 
1.06832e+00 
2.00000e+00 
1.91918e+00 
1.50000e+00 
1.84797e+00 
2.00000e+00 
1.02375e+00 
1.10761e+00 
1.47339e+00 
1.00000e+00 
1.35149e+00 
1.50000e+00 
1.29074e+00 
1.29075e+00 
1.14947e+00 
1.09911e+00 
1.84555e+00 
1.05076e+00 
1.50000e+00 
1.30457e+00 
1.31003e+00 
1.80855e+00 
1.89996e+00 
1.64836e+00 
1.88012e+00 
1.90924e+00 
1.00000e+00 
1.11773e+00 
2.00000e+00 
1.50000e+00 
1.00000e+00 
1.50000e+00 
1.10761e+00 
1.00000e+00 
1.88265e+00 
2.00000e+00 
2.00000e+00 
2.00000e+00 
1.35067e+00 
1.00000e+00 
1.08681e+00 
1.90864e+00 
1.21478e+00 
1.31285e+00 
1.29268e+00 
1.33617e+00 
1.72681e+00 
1.21478e+00 
1.13015e+00 
1.00000e+00 
1.90705e+00 
1.34947e+00 
1.54408e+00 
1.54052e+00 
1.65787e+00 
1.03370e+00 
1.67592e+00 
1.87689e+00 
1.00000e+00 
1.03320e+00 
1.93524e+00 
1.06061e+00 
2.00000e+00 
1.89045e+00 
1.86833e+00 
1.90376e+00 
2.00000e+00 
1.90880e+00 
2.00000e+00 
1.32015e+00 
2.00000e+00 
1.56186e+00 
1.13015e+00 
1.23611e+00 
1.06601e+00 
1.33617e+00 
1.50000e+00 
1.08942e+00 
1.01020e+00 
1.08381e+00 
1.35806e+00 
1.29125e+00 
1.01966e+00 
1.27490e+00 
2.00000e+00 
1.33910e+00 
1.80152e+00 
1.50000e+00 
1.90376e+00 
1.28357e+00 
2.00000e+00 
1.92721e+00 
1.33855e+00 
1.89045e+00 
1.28965e+00 
1.01760e+00 
1.00000e+00 
1.12173e+00 
1.90845e+00 
1.08535e+00 
1.00000e+00 
1.52020e+00 
1.28462e+00 
2.00000e+00 
1.15187e+00 
1.89956e+00 
1.35689e+00 
1.00000e+00 
1.55950e+00 
1.42260e+00 
1.42144e+00 
1.65362e+00 
1.06882e+00 
1.30424e+00 
1.41274e+00 
1.04491e+00 
2.00000e+00 
1.65173e+00 
1.33910e+00 
2.00000e+00 
1.01495e+00 
1.32368e+00 
1.07072e+00 
2.00000e+00 
1.00000e+00 
2.00000e+00 
1.33910e+00 
1.80152e+00 
1.84968e+00 
1.11002e+00 
1.55950e+00 
1.50000e+00 
1.35806e+00 
1.50382e+00 
1.01310e+00 
1.00486e+00 
1.33900e+00 
1.90610e+00 
1.03876e+00 
1.50000e+00 
1.00000e+00 
1.92826e+00 
1.91467e+00 
1.00000e+00 
1.31413e+00 
1.55605e+00 
2.00000e+00 
1.00000e+00 
1.09912e+00 
1.50000e+00 
1.77913e+00 
1.31457e+00 
1.01571e+00 
1.32395e+00 
1.15573e+00 
1.92453e+00 
1.57940e+00 
2.00000e+00 
1.90959e+00 
1.50000e+00 
1.87187e+00 
1.42456e+00 
1.00000e+00 
1.38051e+00 
1.31457e+00 
1.24107e+00 
1.89832e+00 
1.01502e+00 
2.00000e+00 
1.57940e+00 
1.02172e+00 
1.50000e+00 
1.90959e+00 
2.00000e+00 
1.39994e+00 
1.01787e+00 
1.42040e+00 
1.00000e+00 
1.06483e+00 
1.91470e+00 
1.30541e+00 
1.15573e+00 
1.07375e+00 
1.36406e+00 
1.90959e+00 
1.00000e+00 
1.32165e+00 
1.86143e+00 
1.00000e+00 
1.91559e+00 